define		= -DFLEXIBLE
integrator  = cg         	; Algorithm (steep = steepest descent minimization)
emtol       = 50.0        	; Stop minimization when the maximum force < 250.0 kJ/mol/nm
emstep      = 0.05          ; Minimization step size
nsteps      = 50000         ; Maximum number of (minimization) steps to perform
nstcgsteep	= 100

; Parameters describing how to find the neighbors of each atom and how to calculate the interactions
nstlist         = 20        ; Frequency to update the neighbor list and long range forces
cutoff-scheme	= Verlet    ; Buffered neighbor searching 
ns_type         = grid      ; Method to determine neighbor list (simple, grid)
coulombtype     = PME
rcoulomb        = 1.2       ; Short-range electrostatic cut-off
rvdw            = 1.2       ; Short-range Van der Waals cut-off
pbc             = xyz       ; Periodic Boundary Conditions in all 3 dimensions