;
;	File 'topol.top' was generated
;	By user: alejandro (501)
;	On host: TD6E2.WPA.Dal.Ca
;	At date: Mon Sep 22 11:51:45 2025
;
;	This is a standalone topology file
;
;	Created by:
;	                    :-) GROMACS - gmx pdb2gmx, 2024.4 (-:
;	
;	Executable:   /usr/local/gromacs2024-4/bin/gmx
;	Data prefix:  /usr/local/gromacs2024-4
;	Working dir:  /Users/alejandro/Desktop/colproj/processing-analysis/twisting/ffa14
;	Command line:
;	  gmx pdb2gmx -f colfib.pdb -o colfib.gro -ff amber14sb -water tip3p
;	Force field was read from current directory or a relative path - path added.
;

; Include forcefield parameters
#include "./amber14sb.ff/forcefield.itp"

; Include chain topologies
#include "itp_chains/topol_Protein_chain_A.itp"
#include "itp_chains/topol_Protein_chain_B.itp"
#include "itp_chains/topol_Protein_chain_C.itp"
#include "itp_chains/topol_Protein_chain_A2.itp"
#include "itp_chains/topol_Protein_chain_B2.itp"
#include "itp_chains/topol_Protein_chain_C2.itp"
#include "itp_chains/topol_Protein_chain_A3.itp"
#include "itp_chains/topol_Protein_chain_B3.itp"
#include "itp_chains/topol_Protein_chain_C3.itp"
#include "itp_chains/topol_Protein_chain_A4.itp"
#include "itp_chains/topol_Protein_chain_B4.itp"
#include "itp_chains/topol_Protein_chain_C4.itp"
#include "itp_chains/topol_Protein_chain_A5.itp"
#include "itp_chains/topol_Protein_chain_B5.itp"
#include "itp_chains/topol_Protein_chain_C5.itp"
#include "itp_chains/topol_Protein_chain_A6.itp"
#include "itp_chains/topol_Protein_chain_B6.itp"
#include "itp_chains/topol_Protein_chain_C6.itp"
#include "itp_chains/topol_Protein_chain_A7.itp"
#include "itp_chains/topol_Protein_chain_B7.itp"
#include "itp_chains/topol_Protein_chain_C7.itp"
#include "itp_chains/topol_Protein_chain_A8.itp"
#include "itp_chains/topol_Protein_chain_B8.itp"
#include "itp_chains/topol_Protein_chain_C8.itp"
#include "itp_chains/topol_Protein_chain_A9.itp"
#include "itp_chains/topol_Protein_chain_B9.itp"
#include "itp_chains/topol_Protein_chain_C9.itp"
#include "itp_chains/topol_Protein_chain_A10.itp"
#include "itp_chains/topol_Protein_chain_B10.itp"
#include "itp_chains/topol_Protein_chain_C10.itp"
#include "itp_chains/topol_Protein_chain_A11.itp"
#include "itp_chains/topol_Protein_chain_B11.itp"
#include "itp_chains/topol_Protein_chain_C11.itp"
#include "itp_chains/topol_Protein_chain_A12.itp"
#include "itp_chains/topol_Protein_chain_B12.itp"
#include "itp_chains/topol_Protein_chain_C12.itp"
#include "itp_chains/topol_Protein_chain_A13.itp"
#include "itp_chains/topol_Protein_chain_B13.itp"
#include "itp_chains/topol_Protein_chain_C13.itp"
#include "itp_chains/topol_Protein_chain_A14.itp"
#include "itp_chains/topol_Protein_chain_B14.itp"
#include "itp_chains/topol_Protein_chain_C14.itp"
#include "itp_chains/topol_Protein_chain_A15.itp"
#include "itp_chains/topol_Protein_chain_B15.itp"
#include "itp_chains/topol_Protein_chain_C15.itp"
#include "itp_chains/topol_Protein_chain_A16.itp"
#include "itp_chains/topol_Protein_chain_B16.itp"
#include "itp_chains/topol_Protein_chain_C16.itp"
#include "itp_chains/topol_Protein_chain_A17.itp"
#include "itp_chains/topol_Protein_chain_B17.itp"
#include "itp_chains/topol_Protein_chain_C17.itp"
#include "itp_chains/topol_Protein_chain_A18.itp"
#include "itp_chains/topol_Protein_chain_B18.itp"
#include "itp_chains/topol_Protein_chain_C18.itp"
#include "itp_chains/topol_Protein_chain_A19.itp"
#include "itp_chains/topol_Protein_chain_B19.itp"
#include "itp_chains/topol_Protein_chain_C19.itp"
#include "itp_chains/topol_Protein_chain_A20.itp"
#include "itp_chains/topol_Protein_chain_B20.itp"
#include "itp_chains/topol_Protein_chain_C20.itp"
#include "itp_chains/topol_Protein_chain_A21.itp"
#include "itp_chains/topol_Protein_chain_B21.itp"
#include "itp_chains/topol_Protein_chain_C21.itp"
#include "itp_chains/topol_Protein_chain_A22.itp"
#include "itp_chains/topol_Protein_chain_B22.itp"
#include "itp_chains/topol_Protein_chain_C22.itp"
#include "itp_chains/topol_Protein_chain_A23.itp"
#include "itp_chains/topol_Protein_chain_B23.itp"
#include "itp_chains/topol_Protein_chain_C23.itp"
#include "itp_chains/topol_Protein_chain_A24.itp"
#include "itp_chains/topol_Protein_chain_B24.itp"
#include "itp_chains/topol_Protein_chain_C24.itp"
#include "itp_chains/topol_Protein_chain_A25.itp"
#include "itp_chains/topol_Protein_chain_B25.itp"
#include "itp_chains/topol_Protein_chain_C25.itp"
#include "itp_chains/topol_Protein_chain_A26.itp"
#include "itp_chains/topol_Protein_chain_B26.itp"
#include "itp_chains/topol_Protein_chain_C26.itp"
#include "itp_chains/topol_Protein_chain_A27.itp"
#include "itp_chains/topol_Protein_chain_B27.itp"
#include "itp_chains/topol_Protein_chain_C27.itp"
#include "itp_chains/topol_Protein_chain_A28.itp"
#include "itp_chains/topol_Protein_chain_B28.itp"
#include "itp_chains/topol_Protein_chain_C28.itp"
#include "itp_chains/topol_Protein_chain_A29.itp"
#include "itp_chains/topol_Protein_chain_B29.itp"
#include "itp_chains/topol_Protein_chain_C29.itp"
#include "itp_chains/topol_Protein_chain_A30.itp"
#include "itp_chains/topol_Protein_chain_B30.itp"
#include "itp_chains/topol_Protein_chain_C30.itp"
#include "itp_chains/topol_Protein_chain_A31.itp"
#include "itp_chains/topol_Protein_chain_B31.itp"
#include "itp_chains/topol_Protein_chain_C31.itp"
#include "itp_chains/topol_Protein_chain_A32.itp"
#include "itp_chains/topol_Protein_chain_B32.itp"
#include "itp_chains/topol_Protein_chain_C32.itp"
#include "itp_chains/topol_Protein_chain_A33.itp"
#include "itp_chains/topol_Protein_chain_B33.itp"
#include "itp_chains/topol_Protein_chain_C33.itp"
#include "itp_chains/topol_Protein_chain_A34.itp"
#include "itp_chains/topol_Protein_chain_B34.itp"
#include "itp_chains/topol_Protein_chain_C34.itp"
#include "itp_chains/topol_Protein_chain_A35.itp"
#include "itp_chains/topol_Protein_chain_B35.itp"
#include "itp_chains/topol_Protein_chain_C35.itp"
#include "itp_chains/topol_Protein_chain_A36.itp"
#include "itp_chains/topol_Protein_chain_B36.itp"
#include "itp_chains/topol_Protein_chain_C36.itp"
#include "itp_chains/topol_Protein_chain_A37.itp"
#include "itp_chains/topol_Protein_chain_B37.itp"
#include "itp_chains/topol_Protein_chain_C37.itp"
#include "itp_chains/topol_Protein_chain_A38.itp"
#include "itp_chains/topol_Protein_chain_B38.itp"
#include "itp_chains/topol_Protein_chain_C38.itp"
#include "itp_chains/topol_Protein_chain_A39.itp"
#include "itp_chains/topol_Protein_chain_B39.itp"
#include "itp_chains/topol_Protein_chain_C39.itp"
#include "itp_chains/topol_Protein_chain_A40.itp"
#include "itp_chains/topol_Protein_chain_B40.itp"
#include "itp_chains/topol_Protein_chain_C40.itp"
#include "itp_chains/topol_Protein_chain_A41.itp"
#include "itp_chains/topol_Protein_chain_B41.itp"
#include "itp_chains/topol_Protein_chain_C41.itp"

; Include water topology
#include "./amber14sb.ff/tip3p.itp"

#ifdef POSRES_WATER
; Position restraint for each water oxygen
[ position_restraints ]
;  i funct       fcx        fcy        fcz
   1    1       1000       1000       1000
#endif

; Include topology for ions
#include "./amber14sb.ff/ions.itp"

[ system ]
; Name
Protein

[ molecules ]
; Compound        #mols
Protein_chain_A     1
Protein_chain_B     1
Protein_chain_C     1
Protein_chain_A2     1
Protein_chain_B2     1
Protein_chain_C2     1
Protein_chain_A3     1
Protein_chain_B3     1
Protein_chain_C3     1
Protein_chain_A4     1
Protein_chain_B4     1
Protein_chain_C4     1
Protein_chain_A5     1
Protein_chain_B5     1
Protein_chain_C5     1
Protein_chain_A6     1
Protein_chain_B6     1
Protein_chain_C6     1
Protein_chain_A7     1
Protein_chain_B7     1
Protein_chain_C7     1
Protein_chain_A8     1
Protein_chain_B8     1
Protein_chain_C8     1
Protein_chain_A9     1
Protein_chain_B9     1
Protein_chain_C9     1
Protein_chain_A10     1
Protein_chain_B10     1
Protein_chain_C10     1
Protein_chain_A11     1
Protein_chain_B11     1
Protein_chain_C11     1
Protein_chain_A12     1
Protein_chain_B12     1
Protein_chain_C12     1
Protein_chain_A13     1
Protein_chain_B13     1
Protein_chain_C13     1
Protein_chain_A14     1
Protein_chain_B14     1
Protein_chain_C14     1
Protein_chain_A15     1
Protein_chain_B15     1
Protein_chain_C15     1
Protein_chain_A16     1
Protein_chain_B16     1
Protein_chain_C16     1
Protein_chain_A17     1
Protein_chain_B17     1
Protein_chain_C17     1
Protein_chain_A18     1
Protein_chain_B18     1
Protein_chain_C18     1
Protein_chain_A19     1
Protein_chain_B19     1
Protein_chain_C19     1
Protein_chain_A20     1
Protein_chain_B20     1
Protein_chain_C20     1
Protein_chain_A21     1
Protein_chain_B21     1
Protein_chain_C21     1
Protein_chain_A22     1
Protein_chain_B22     1
Protein_chain_C22     1
Protein_chain_A23     1
Protein_chain_B23     1
Protein_chain_C23     1
Protein_chain_A24     1
Protein_chain_B24     1
Protein_chain_C24     1
Protein_chain_A25     1
Protein_chain_B25     1
Protein_chain_C25     1
Protein_chain_A26     1
Protein_chain_B26     1
Protein_chain_C26     1
Protein_chain_A27     1
Protein_chain_B27     1
Protein_chain_C27     1
Protein_chain_A28     1
Protein_chain_B28     1
Protein_chain_C28     1
Protein_chain_A29     1
Protein_chain_B29     1
Protein_chain_C29     1
Protein_chain_A30     1
Protein_chain_B30     1
Protein_chain_C30     1
Protein_chain_A31     1
Protein_chain_B31     1
Protein_chain_C31     1
Protein_chain_A32     1
Protein_chain_B32     1
Protein_chain_C32     1
Protein_chain_A33     1
Protein_chain_B33     1
Protein_chain_C33     1
Protein_chain_A34     1
Protein_chain_B34     1
Protein_chain_C34     1
Protein_chain_A35     1
Protein_chain_B35     1
Protein_chain_C35     1
Protein_chain_A36     1
Protein_chain_B36     1
Protein_chain_C36     1
Protein_chain_A37     1
Protein_chain_B37     1
Protein_chain_C37     1
Protein_chain_A38     1
Protein_chain_B38     1
Protein_chain_C38     1
Protein_chain_A39     1
Protein_chain_B39     1
Protein_chain_C39     1
Protein_chain_A40     1
Protein_chain_B40     1
Protein_chain_C40     1
Protein_chain_A41     1
Protein_chain_B41     1
Protein_chain_C41     1
